COMPOSITION,A_SITE_1,A_SITE_2,A_SITE_3,B_SITE_1,B_SITE_2,B_SITE_3,X_SITE,NUM_ELEMS,ENERGY_ABOVE_HULL,FORMATION_ENERGY
Ba8Fe4Mo4O24,Ba,,,Fe,Mo,,O,4,347.3831,-1.44292771371
Ba8Fe4Ni4O24,Ba,,,Fe,Ni,,O,4,174.060277466,-1.08744340171
Ba8Fe4Os4O24,Ba,,,Fe,Os,,O,4,0,-1.52134385021
Ba8Fe4Pd4O24,Ba,,,Fe,Pd,,O,4,41.601287871,-1.22404478571
Ba8Fe4Pt4O24,Ba,,,Fe,Pt,,O,4,9.79676616949,-1.30919419771
Ba8Fe4Re4O24,Ba,,,Fe,Re,,O,4,0.678470999999,-1.76222913921
Ba8Fe4Rh4O24,Ba,,,Fe,Rh,,O,4,7.48766193813,-1.37719912871
Ba8Fe4Ru4O24,Ba,,,Fe,Ru,,O,4,0,-1.51299853021
Ba8Fe4Tc4O24,Ba,,,Fe,Tc,,O,4,0,-1.71074235121
Ba8Fe6Co2O24,Ba,,,Fe,Co,,O,4,108.537383781,-1.35910778496
Ba8Fe6Cu2O24,Ba,,,Fe,Cu,,O,4,134.180693408,-1.26541294571
Ba8Fe6Ir2O24,Ba,,,Fe,Ir,,O,4,0,-1.44580526371
Ba8Fe6Mo2O24,Ba,,,Fe,Mo,,O,4,179.258723131,-1.50189465971
Ba8Fe6Ni2O24,Ba,,,Fe,Ni,,O,4,137.479652578,-1.24459825371
Ba8Fe6Os2O24,Ba,,,Fe,Os,,O,4,29.459108777,-1.53805210296
Ba8Fe6Pd2O24,Ba,,,Fe,Pd,,O,4,69.2869613885,-1.31839569571
Ba8Fe6Pt2O24,Ba,,,Fe,Pt,,O,4,49.3432856618,-1.36621265171
Ba8Fe6Re2O24,Ba,,,Fe,Re,,O,4,5.90096116518,-1.68987837246
Ba8Fe6Rh2O24,Ba,,,Fe,Rh,,O,4,36.5282198147,-1.40714124221
Ba8Fe6Ru2O24,Ba,,,Fe,Ru,,O,4,12.9458568039,-1.49002969296
Ba8Fe6Tc2O24,Ba,,,Fe,Tc,,O,4,0,-1.63607710346
Ba8Fe7Co1O24,Ba,,,Fe,Co,,O,4,91.4620807359,-1.39368657033
Ba8Fe7Cu1O24,Ba,,,Fe,Cu,,O,4,103.801110549,-1.34732177571
Ba8Fe7Ir1O24,Ba,,,Fe,Ir,,O,4,32.0094037039,-1.44128718471
Ba8Fe7Mo1O24,Ba,,,Fe,Mo,,O,4,127.681884176,-1.46452488271
Ba8Fe7Ni1O24,Ba,,,Fe,Ni,,O,4,114.754340135,-1.32761067971
Ba8Fe7Os1O24,Ba,,,Fe,Os,,O,4,34.7342257044,-1.50251222933
Ba8Fe7Pd1O24,Ba,,,Fe,Pd,,O,4,75.8782445399,-1.36928915071
Ba8Fe7Pt1O24,Ba,,,Fe,Pt,,O,4,63.6890316765,-1.39541500371
Ba8Fe7Re1O24,Ba,,,Fe,Re,,O,4,30.403271269,-1.57333936408
Ba8Fe7Rh1O24,Ba,,,Fe,Rh,,O,4,56.1529987529,-1.41700779896
Ba8Fe7Ru1O24,Ba,,,Fe,Ru,,O,4,36.3631922476,-1.46645064933
Ba8Fe7Tc1O24,Ba,,,Fe,Tc,,O,4,0,-1.54582010458
Ba8Fe8O24,Ba,,,Fe,,,O,3,77.2912776912,-1.42536085571
Ba8Ga1Fe7O24,Ba,,,Ga,Fe,,O,4,102.036436282,-1.43709934758
Ba8Ga2Fe6O24,Ba,,,Ga,Fe,,O,4,128.364344873,-1.44725508946
Ba8Ga4Fe4O24,Ba,,,Ga,Fe,,O,4,182.740912055,-1.46584582321
Ba8Ga6Fe2O24,Ba,,,Ga,Fe,,O,4,238.334229236,-1.48321980696
Ba8Ga8O24,Ba,,,Ga,,,O,3,278.307781849,-1.51328954071
Ba8Hf1Fe7O24,Ba,,,Hf,Fe,,O,4,73.4978297298,-1.61823071958
Ba8Hf1Zr6Fe1O24,Ba,,,Hf,Zr,Fe,O,5,0,-2.73782464758
Ba8Hf2Fe6O24,Ba,,,Hf,Fe,,O,4,71.4456317684,-1.80935933346
Ba8Hf2Zr5Fe1O24,Ba,,,Hf,Zr,Fe,O,5,0,-2.74807852346
Ba8Hf4Co4O24,Ba,,,Hf,Co,,O,4,131.350152405,-2.02449966971
Ba8Hf4Fe4O24,Ba,,,Hf,Fe,,O,4,63.0457358456,-2.19591206121
Ba8Hf4Ni4O24,Ba,,,Hf,Ni,,O,4,177.441803716,-1.83897135721
Ba8Hf4Zr3Fe1O24,Ba,,,Hf,Zr,Fe,O,5,1.1676399614,-2.76942052521
Ba8Hf6Co2O24,Ba,,,Hf,Co,,O,4,70.2166732026,-2.51533996821
Ba8Hf6Fe2O24,Ba,,,Hf,Fe,,O,4,38.7490899228,-2.59836153896
Ba8Hf6Ni2O24,Ba,,,Hf,Ni,,O,4,96.8586983579,-2.42045018696
Ba8Hf7Co1O24,Ba,,,Hf,Co,,O,4,45.7531836013,-2.75465686746
Ba8Hf7Fe1O24,Ba,,,Hf,Fe,,O,4,23.5011419614,-2.80268590283
Ba8Hf7Ni1O24,Ba,,,Hf,Ni,,O,4,51.8644461789,-2.71442172683
Ba8Hf8O24,Ba,,,Hf,,,O,3,8.216444,-3.00704701671
Ba8Ir8O24,Ba,,,Ir,,,O,3,163.297864937,-1.07729998771
Ba8Mn1Co7O24,Ba,,,Mn,Co,,O,4,129.601532228,-1.21678508312
Ba8Mn1Fe7O24,Ba,,,Mn,Fe,,O,4,83.5686241725,-1.44524533074
Ba8Mn1Ni7O24,Ba,,,Mn,Ni,,O,4,265.270592068,-0.81037059874
Ba8Mn2Co6O24,Ba,,,Mn,Co,,O,4,142.333953646,-1.25400309352
Ba8Mn2Fe6O24,Ba,,,Mn,Fe,,O,4,90.6089706538,-1.46436680577
Ba8Mn2Zr1Fe5O24,Ba,,,Mn,Zr,Fe,O,5,0,-1.97596454377
Ba8Mn4Co4O24,Ba,,,Mn,Co,,O,4,155.663046482,-1.34057486434
Ba8Mn4Fe4O24,Ba,,,Mn,Fe,,O,4,100.815663616,-1.50648375584
Ba8Mn4Ni4O24,Ba,,,Mn,Ni,,O,4,215.604849978,-1.13953180184
Ba8Mn6Co2O24,Ba,,,Mn,Co,,O,4,179.412889318,-1.41672588516
Ba8Mn6Ni2O24,Ba,,,Mn,Ni,,O,4,185.197855252,-1.35626910391
Ba8Mn7Co1O24,Ba,,,Mn,Co,,O,4,168.517826662,-1.47697039557
Ba8Mn7Fe1O24,Ba,,,Mn,Fe,,O,4,157.242981487,-1.51796618095
Ba8Mn7Ni1O24,Ba,,,Mn,Ni,,O,4,182.075420764,-1.43838525495
Ba8Mn8O24,Ba,,,Mn,,,O,3,159.403545859,-1.53423215598
Ba8Mo8O24,Ba,,,Mo,,,O,3,643.729766,-1.16417982171
Ba8Nb1Fe7O24,Ba,,,Nb,Fe,,O,4,69.4361417684,-1.59962703771
Ba8Nb2Fe6O24,Ba,,,Nb,Fe,,O,4,57.3220058456,-1.77815221971
Ba8Nb4Co4O24,Ba,,,Nb,Co,,O,4,37.9332462026,-1.97633569221
Ba8Nb4Fe4O24,Ba,,,Nb,Fe,,O,4,24.184234,-2.14411208371
Ba8Nb4Ni4O24,Ba,,,Nb,Ni,,O,4,70.3541023579,-1.80763962971
Ba8Nb6Fe2O24,Ba,,,Nb,Fe,,O,4,24.8926086667,-2.30853819771
Ba8Nb7Co1O24,Ba,,,Nb,Co,,O,4,45.073198625,-2.33448659433
Ba8Nb7Fe1O24,Ba,,,Nb,Fe,,O,4,25.66391325,-2.35389587971
Ba8Nb7Ni1O24,Ba,,,Nb,Ni,,O,4,74.7720530417,-2.30711670371
Ba8Nb8O24,Ba,,,Nb,,,O,3,7.667046,-2.39372956171
Ba8Ni4Co4O24,Ba,,,Ni,Co,,O,4,260.129737216,-0.936196260206
Ba8Ni6Co2O24,Ba,,,Ni,Co,,O,4,250.252038324,-0.839148978956
Ba8Ni7Co1O24,Ba,,,Ni,Co,,O,4,245.692438878,-0.790246088331
Ba8Ni8O24,Ba,,,Ni,,,O,3,271.319339431,-0.711156697706
Ba8Os8O24,Ba,,,Os,,,O,3,92.4561079091,-1.25892359471
Ba8Pd8O24,Ba,,,Pd,,,O,3,90.406833621,-0.924098965706
Ba8Pt8O24,Ba,,,Pt,,,O,3,156.627930263,-0.933456289706
Ba8Re8O24,Ba,,,Re,,,O,3,158.218632333,-1.57726817271
Ba8Rh8O24,Ba,,,Rh,,,O,3,114.525327049,-1.13941590171
Ba8Ru8O24,Ba,,,Ru,,,O,3,56.6738366667,-1.35747670471
Ba8Ta1Fe7O24,Ba,,,Ta,Fe,,O,4,54.2920320481,-1.62757321096
Ba8Ta2Fe6O24,Ba,,,Ta,Fe,,O,4,27.313536405,-1.83376481621
Ba8Ta4Co4O24,Ba,,,Ta,Co,,O,4,21.6105345,-2.08127488521
Ba8Ta4Fe4O24,Ba,,,Ta,Fe,,O,4,0,-2.25539602671
Ba8Ta4Ni4O24,Ba,,,Ta,Ni,,O,4,88.1834983579,-1.91742057271
Ba8Ta6Co2O24,Ba,,,Ta,Co,,O,4,58.9939170208,-2.40569741646
Ba8Ta6Fe2O24,Ba,,,Ta,Fe,,O,4,121.571007147,-2.35937023721
Ba8Ta6Ni2O24,Ba,,,Ta,Ni,,O,4,112.0035505,-2.35099913521
Ba8Ta7Co1O24,Ba,,,Ta,Co,,O,4,109.47390069,-2.43290555708
Ba8Ta7Fe1O24,Ba,,,Ta,Fe,,O,4,76.6050637187,-2.46331534246
Ba8Ta7Ni1O24,Ba,,,Ta,Ni,,O,4,127.239966608,-2.41864191646
Ba8Ta8O24,Ba,,,Ta,,,O,3,50.0993,-2.48271694771
Ba8Ti8O24,Ba,,,Ti,,,O,3,19.340972,-2.69987023504
Ba8V8O24,Ba,,,V,,,O,3,0,-2.16176035771
Ba8Y1Fe7O24,Ba,,,Y,Fe,,O,4,73.8023139057,-1.55471595896
Ba8Y2Fe6O24,Ba,,,Y,Fe,,O,4,63.1512971348,-1.69109856221
Ba8Y4Fe4O24,Ba,,,Y,Fe,,O,4,64.5049606079,-1.94107351871
Ba8Y8O24,Ba,,,Y,,,O,3,141.664751466,-2.33881143171
Ba8Zn1Fe7O24,Ba,,,Zn,Fe,,O,4,101.797990325,-1.38475439646
Ba8Zn2Fe6O24,Ba,,,Zn,Fe,,O,4,128.57645296,-1.34187618721
Ba8Zn4Fe4O24,Ba,,,Zn,Fe,,O,4,197.421378228,-1.24083176871
Ba8Zn6Fe2O24,Ba,,,Zn,Fe,,O,4,261.724803496,-1.14432885021
Ba8Zn8O24,Ba,,,Zn,,,O,3,357.160728765,-1.01669343171
Ba8Zr1Fe7O24,Ba,,,Zr,Fe,,O,4,64.6627457298,-1.60853284371
Ba8Zr2Fe6O24,Ba,,,Zr,Fe,,O,4,53.5777137684,-1.79016133171
Ba8Zr3Fe1Co4O24,Ba,,,Zr,Fe,Co,O,5,74.586104069,-1.84072517821
Ba8Zr3Fe1Cu4O24,Ba,,,Zr,Fe,Cu,O,5,149.611167272,-1.65914149971
Ba8Zr3Fe1Mo4O24,Ba,,,Zr,Fe,Mo,O,5,307.83053925,-1.89283817771
Ba8Zr3Fe1Ni4O24,Ba,,,Zr,Fe,Ni,O,5,140.134457153,-1.63170511571
Ba8Zr3Fe5O24,Ba,,,Zr,Fe,,O,4,40.029931807,-1.97425256971
Ba8Zr3Nb4Fe1O24,Ba,,,Zr,Nb,Fe,O,5,10.5881855,-2.54357279771
Ba8Zr3Ta4Fe1O24,Ba,,,Zr,Ta,Fe,O,5,29.91808225,-2.62821699071
Ba8Zr3Zn4Fe1O24,Ba,,,Zr,Zn,Fe,O,5,177.633032344,-1.77225048271
Ba8Zr4Co4O24,Ba,,,Zr,Co,,O,4,92.4493164052,-1.98926866621
Ba8Zr4Fe4O24,Ba,,,Zr,Fe,,O,4,26.8896498456,-2.15793630771
Ba8Zr4Ni4O24,Ba,,,Zr,Ni,,O,4,139.599683716,-1.80235185371
Ba8Zr5Fe1Co2O24,Ba,,,Zr,Fe,Co,O,5,56.4799568664,-2.25147222496
Ba8Zr5Fe1Cu2O24,Ba,,,Zr,Fe,Cu,O,5,78.0236106166,-2.17458088571
Ba8Zr5Fe1Mo2O24,Ba,,,Zr,Fe,Mo,O,5,130.86141575,-2.33457984971
Ba8Zr5Fe1Ni2O24,Ba,,,Zr,Fe,Ni,O,5,66.1459738193,-2.16952994371
Ba8Zr5Nb2Fe1O24,Ba,,,Zr,Nb,Fe,O,5,0,-2.66665640971
Ba8Zr5Ta2Fe1O24,Ba,,,Zr,Ta,Fe,O,5,0,-2.72482000621
Ba8Zr5Zn2Fe1O24,Ba,,,Zr,Zn,Fe,O,5,79.3342931526,-2.24383562721
Ba8Zr6Co2O24,Ba,,,Zr,Co,,O,4,28.9476692026,-2.44541121296
Ba8Zr6Fe1Co1O24,Ba,,,Zr,Fe,Co,O,5,19.4608832651,-2.48481174833
Ba8Zr6Fe1Cu1O24,Ba,,,Zr,Fe,Cu,O,5,29.163207289,-2.44536720371
Ba8Zr6Fe1Mo1O24,Ba,,,Zr,Fe,Mo,O,5,53.828979,-2.54399856071
Ba8Zr6Fe1Ni1O24,Ba,,,Zr,Fe,Ni,O,5,22.6412638903,-2.44342485771
Ba8Zr6Fe1W1O24,Ba,,,Zr,Fe,W,O,5,80.30888725,-2.53154007271
Ba8Zr6Fe2O24,Ba,,,Zr,Fe,,O,4,0,-2.53394628371
Ba8Zr6Nb1Fe1O24,Ba,,,Zr,Nb,Fe,O,5,0,-2.71917796571
Ba8Zr6Ni2O24,Ba,,,Zr,Ni,,O,4,50.4901918579,-2.35572918171
Ba8Zr6Ta1Fe1O24,Ba,,,Zr,Ta,Fe,O,5,0,-2.74822638896
Ba8Zr6Zn1Fe1O24,Ba,,,Zr,Zn,Fe,O,5,31.129048557,-2.47868407446
Ba8Zr7Co1O24,Ba,,,Zr,Co,,O,4,0,-2.67930648633
Ba8Zr7Fe1O24,Ba,,,Zr,Fe,,O,4,0,-2.72692127171
Ba8Zr7Ni1O24,Ba,,,Zr,Ni,,O,4,0,-2.63852134571
Ba8Zr8O24,Ba,,,Zr,,,O,3,0,-2.92152625971
Bi1Ba3Sr4Fe2Co6O24,Bi,Ba,Sr,Co,Fe,,O,6,125.292207611,-1.18830833846
Bi2Ba2Sr4Fe2Co6O24,Bi,Ba,Sr,Co,Fe,,O,6,126.881898834,-1.12355392046
Bi4Pr4Co8O24,Bi,Pr,,Co,,,O,4,69.4735155302,-1.20175699871
Bi4Sr4Fe2Co6O24,Bi,Sr,,Co,Fe,,O,5,170.388617304,-0.946845584456
Ca2La6Co8O24,Ca,La,,Co,,,O,4,50.0254523342,-1.69368405783
Ca2La6Cr8O24,Ca,La,,Cr,,,O,4,0,-2.29792536883
Ca2La6Fe8O24,Ca,La,,Fe,,,O,4,0,-2.03438384083
Ca2La6Ga8O24,Ca,La,,Ga,,,O,4,73.9741468307,-2.17354127583
Ca2La6Mn8O24,Ca,La,,Mn,,,O,4,32.789930692,-2.08698289111
Ca2La6Ni8O24,Ca,La,,Ni,,,O,4,178.001455145,-1.36548768283
Ca2La6Sc8O24,Ca,La,,Sc,,,O,4,30.4689790539,-3.02474626283
Ca2La6Ti8O24,Ca,La,,Ti,,,O,4,8.970625875,-2.85557872016
Ca2La6V8O24,Ca,La,,V,,,O,4,33.200068125,-2.38052809283
Ca2Pr6Co8O24,Ca,Pr,,Co,,,O,4,49.6917624592,-1.64076360921
Ca2Pr6Cr8O24,Ca,Pr,,Cr,,,O,4,13.8924376789,-2.16896417021
Ca2Pr6Fe8O24,Ca,Pr,,Fe,,,O,4,55.4728596164,-1.91887289221
Ca2Pr6Ga8O24,Ca,Pr,,Ga,,,O,4,132.773863413,-2.05586782721
Ca2Pr6Mn8O24,Ca,Pr,,Mn,,,O,4,33.273366692,-2.03820369248
Ca2Pr6Ni8O24,Ca,Pr,,Ni,,,O,4,169.71976527,-1.32051523421
Ca2Pr6Sc8O24,Ca,Pr,,Sc,,,O,4,81.0394981789,-2.92014056421
Ca2Pr6Ti8O24,Ca,Pr,,Ti,,,O,4,19.2994335,-2.77883127154
Ca2Pr6V8O24,Ca,Pr,,V,,,O,4,8.63070904687,-2.31240589421
Ca2Y6Co8O24,Ca,Y,,Co,,,O,4,62.3247673342,-1.71566039421
Ca2Y6Cr8O24,Ca,Y,,Cr,,,O,4,43.4643305539,-2.24283620521
Ca2Y6Fe8O24,Ca,Y,,Fe,,,O,4,45.6348093039,-1.98284617721
Ca2Y6Ga8O24,Ca,Y,,Ga,,,O,4,139.06215854,-2.12465011221
Ca2Y6Mn8O24,Ca,Y,,Mn,,,O,4,38.1925113587,-2.09836922748
Ca2Y6Ni8O24,Ca,Y,,Ni,,,O,4,123.849520145,-1.45391526921
Ca2Y6Sc8O24,Ca,Y,,Sc,,,O,4,84.8759223664,-2.98248609921
Ca2Y6Ti8O24,Ca,Y,,Ti,,,O,4,17.0003038125,-2.84638730654
Ca2Y6V8O24,Ca,Y,,V,,,O,4,0,-2.43962342921
Ca4Ba4Co4Ni4O24,Ca,Ba,,Co,Ni,,O,5,292.390663121,-0.945009039206
Ca4Ba4Co6Ni2O24,Ca,Ba,,Co,Ni,,O,5,235.409224918,-1.05204557046
Ca4Ba4Co7Ni1O24,Ca,Ba,,Co,Ni,,O,5,220.003380817,-1.09247896108
Ca4Ba4Fe1Co7O24,Ca,Ba,,Fe,Co,,O,5,196.074158571,-1.17381413708
Ca4Ba4Fe1Ni7O24,Ca,Ba,,Fe,Ni,,O,5,323.82263694,-0.826353902706
Ca4Ba4Fe2Co6O24,Ca,Ba,,Fe,Co,,O,5,186.026530427,-1.21624017246
Ca4Ba4Fe2Ni6O24,Ca,Ba,,Fe,Ni,,O,5,309.856621449,-0.910076828706
Ca4Ba4Mn1Co7O24,Ca,Ba,,Mn,Co,,O,5,189.952208134,-1.19750811212
Ca4Ba4Mn1Ni7O24,Ca,Ba,,Mn,Ni,,O,5,340.437655068,-0.83314712774
Ca4Ba4Mn2Co6O24,Ca,Ba,,Mn,Co,,O,5,189.824629552,-1.24758612252
Ca4Ba4Mn2Fe6O24,Ca,Ba,,Mn,Fe,,O,5,956.831955747,-0.666962334775
Ca4Ba4Mn2Ni6O24,Ca,Ba,,Mn,Ni,,O,5,318.399907705,-0.948350028775
Ca4Ba4Mn4Co4O24,Ca,Ba,,Mn,Co,,O,5,189.17625424,-1.34693339334
Ca4Ba4Mn4Ni4O24,Ca,Ba,,Mn,Ni,,O,5,274.756630645,-1.16124283084
Ca4Ba4Mn6Co2O24,Ca,Ba,,Mn,Co,,O,5,191.836673799,-1.43888041416
Ca4Ba4Mn6Fe2O24,Ca,Ba,,Mn,Fe,,O,5,178.58616751,-1.51688773491
Ca4Ba4Mn6Ni2O24,Ca,Ba,,Mn,Ni,,O,5,231.128112002,-1.34953388291
Ca4Ba4Mn7Co1O24,Ca,Ba,,Mn,Co,,O,5,196.409133579,-1.48161167457
Ca4Ba4Mn7Fe1O24,Ca,Ba,,Mn,Fe,,O,5,190.075255435,-1.52032395995
Ca4Ba4Mn7Ni1O24,Ca,Ba,,Mn,Ni,,O,5,210.33572768,-1.44265753395
Ca4Ba4Ni4Co4O24,Ca,Ba,,Ni,Co,,O,5,294.310413121,-0.943089289206
Ca4Ba4Ni6Co2O24,Ca,Ba,,Ni,Co,,O,5,357.145351324,-0.830199257956
Ca4Ba4Ni7Co1O24,Ca,Ba,,Ni,Co,,O,5,351.817501878,-0.782064617331
Ca4La4Co8O24,Ca,La,,Co,,,O,4,75.1559557631,-1.54684491546
Ca4La4Cr8O24,Ca,La,,Cr,,,O,4,0.203972666664,-2.15052197646
Ca4La4Fe8O24,Ca,La,,Fe,,,O,4,0.59343723286,-1.89483694846
Ca4La4Ga8O24,Ca,La,,Ga,,,O,4,139.370003947,-1.99119888346
Ca4La4Mn8O24,Ca,La,,Mn,,,O,4,38.146165692,-1.96334774873
Ca4La4Ni8O24,Ca,La,,Ni,,,O,4,232.209208574,-1.18957129046
Ca4La4Sc8O24,Ca,La,,Sc,,,O,4,87.3607131079,-2.83926262046
Ca4La4Ti8O24,Ca,La,,Ti,,,O,4,0,-2.84502182779
Ca4La4V8O24,Ca,La,,V,,,O,4,21.88033825,-2.30622995046
Ca4Pr4Co8O24,Ca,Pr,,Co,,,O,4,73.1341625131,-1.51336394971
Ca4Pr4Cr8O24,Ca,Pr,,Cr,,,O,4,51.4231023579,-2.05055151071
Ca4Pr4Fe8O24,Ca,Pr,,Fe,,,O,4,72.0108022329,-1.79008998271
Ca4Pr4Ga8O24,Ca,Pr,,Ga,,,O,4,204.099993472,-1.88589866771
Ca4Pr4Mn8O24,Ca,Pr,,Mn,,,O,4,37.033060192,-1.93119853298
Ca4Pr4Ni8O24,Ca,Pr,,Ni,,,O,4,224.402165324,-1.16187557471
Ca4Pr4Sc8O24,Ca,Pr,,Sc,,,O,4,141.373725858,-2.74922615471
Ca4Pr4Ti8O24,Ca,Pr,,Ti,,,O,4,21.819592,-2.79328636204
Ca4Pr4V8O24,Ca,Pr,,V,,,O,4,21.1232453125,-2.25603998471
Ca4Sr4Co4Ni4O24,Ca,Sr,,Co,Ni,,O,5,244.800345074,-1.00661440221
Ca4Sr4Co6Ni2O24,Ca,Sr,,Co,Ni,,O,5,213.365656871,-1.08810418346
Ca4Sr4Co7Ni1O24,Ca,Sr,,Co,Ni,,O,5,179.65931277,-1.14683807408
Ca4Sr4Fe1Co7O24,Ca,Sr,,Fe,Co,,O,5,141.453455481,-1.24322850008
Ca4Sr4Fe1Ni7O24,Ca,Sr,,Fe,Ni,,O,5,313.927543003,-0.884089515706
Ca4Sr4Fe2Co6O24,Ca,Sr,,Fe,Co,,O,5,142.826192293,-1.27501278546
Ca4Sr4Fe2Ni6O24,Ca,Sr,,Fe,Ni,,O,5,295.582042574,-0.968002191706
Ca4Sr4Mn1Co7O24,Ca,Sr,,Mn,Co,,O,5,144.154498313,-1.26011572512
Ca4Sr4Mn1Ni7O24,Ca,Sr,,Mn,Ni,,O,5,347.29590062,-0.87117574074
Ca4Sr4Mn2Co6O24,Ca,Sr,,Mn,Co,,O,5,150.042027957,-1.30697348552
Ca4Sr4Mn4Co4O24,Ca,Sr,,Mn,Co,,O,5,138.575931764,-1.41460175634
Ca4Sr4Mn4Ni4O24,Ca,Sr,,Mn,Ni,,O,5,238.535058169,-1.21453244384
Ca4Sr4Mn6Co2O24,Ca,Sr,,Mn,Co,,O,5,139.231351323,-1.50855377716
Ca4Sr4Mn6Fe2O24,Ca,Sr,,Mn,Fe,,O,5,129.155595034,-1.58338634791
Ca4Sr4Mn6Ni2O24,Ca,Sr,,Mn,Ni,,O,5,184.330789526,-1.41339924591
Ca4Sr4Mn7Co1O24,Ca,Sr,,Mn,Co,,O,5,151.898311103,-1.54319053757
Ca4Sr4Mn7Fe1O24,Ca,Sr,,Mn,Fe,,O,5,132.392432958,-1.59507482295
Ca4Sr4Mn7Ni1O24,Ca,Sr,,Mn,Ni,,O,5,158.413405204,-1.51164789695
Ca4Sr4Ni4Co4O24,Ca,Sr,,Ni,Co,,O,5,247.909595074,-1.00350515221
Ca4Sr4Ni6Co2O24,Ca,Sr,,Ni,Co,,O,5,312.115625145,-0.881491120956
Ca4Sr4Ni7Co1O24,Ca,Sr,,Ni,Co,,O,5,324.945084288,-0.838083230331
Ca4Y4Co8O24,Ca,Y,,Co,,,O,4,93.7906657631,-1.55106063971
Ca4Y4Cr8O24,Ca,Y,,Cr,,,O,4,63.9648556079,-2.09636295071
Ca4Y4Fe8O24,Ca,Y,,Fe,,,O,4,74.8181406079,-1.82906042271
Ca4Y4Ga8O24,Ca,Y,,Ga,,,O,4,207.75718308,-1.93045360771
Ca4Y4Mn8O24,Ca,Y,,Mn,,,O,4,39.1108878587,-1.97093472298
Ca4Y4Ni8O24,Ca,Y,,Ni,,,O,4,166.347668574,-1.27828326471
Ca4Y4Sc8O24,Ca,Y,,Sc,,,O,4,142.323884358,-2.79338334471
Ca4Y4Ti8O24,Ca,Y,,Ti,,,O,4,0,-2.83836430204
Ca4Y4V8O24,Ca,Y,,V,,,O,4,0,-2.36095267471
Ca8Co4Ni4O24,Ca,,,Co,Ni,,O,4,286.026589026,-0.992446818206
Ca8Co6Ni2O24,Ca,,,Co,Ni,,O,4,234.660650824,-1.09386784946
Ca8Co7Ni1O24,Ca,,,Co,Ni,,O,4,207.904806722,-1.14565124008
Ca8Co8O24,Ca,,,Co,,,O,3,188.514712621,-1.19006888071
Ca8Cr8O24,Ca,,,Cr,,,O,3,0,-1.94395069171
Ca8Fe1Co7O24,Ca,,,Fe,Co,,O,4,189.093084477,-1.22186891608
Ca8Fe1Ni7O24,Ca,,,Fe,Ni,,O,4,367.138367404,-0.869899181706
Ca8Fe2Co6O24,Ca,,,Fe,Co,,O,4,193.229456332,-1.25011095146
Ca8Fe2Ni6O24,Ca,,,Fe,Ni,,O,4,342.040019378,-0.953671857706
Ca8Fe4Co4O24,Ca,,,Fe,Co,,O,4,183.151200043,-1.32494602221
Ca8Fe4Ni4O24,Ca,,,Fe,Ni,,O,4,291.099073324,-1.12196145971
Ca8Fe6Co2O24,Ca,,,Fe,Co,,O,4,185.661693755,-1.38719234296
Ca8Fe6Ni2O24,Ca,,,Fe,Ni,,O,4,237.583378832,-1.29028906171
Ca8Fe7Co1O24,Ca,,,Fe,Co,,O,4,184.59131561,-1.42064112833
Ca8Fe7Ni1O24,Ca,,,Fe,Ni,,O,4,208.035658149,-1.37470598771
Ca8Fe8O24,Ca,,,Fe,,,O,3,183.350687466,-1.45426016371
Ca8Mn1Co7O24,Ca,,,Mn,Co,,O,4,132.871922401,-1.29301539112
Ca8Mn1Fe7O24,Ca,,,Mn,Fe,,O,4,185.05127539,-1.46748488874
Ca8Mn1Ni7O24,Ca,,,Mn,Ni,,O,4,366.50308111,-0.88419140674
Ca8Mn2Co6O24,Ca,,,Mn,Co,,O,4,179.65413218,-1.29353690152
Ca8Mn2Fe6O24,Ca,,,Mn,Fe,,O,4,171.490363314,-1.49597111377
Ca8Mn2Ni6O24,Ca,,,Mn,Ni,,O,4,336.224696788,-0.986801057775
Ca8Mn4Co4O24,Ca,,,Mn,Co,,O,4,168.86730174,-1.39893117234
Ca8Mn4Fe4O24,Ca,,,Mn,Fe,,O,4,156.027039162,-1.54128506384
Ca8Mn4Ni4O24,Ca,,,Mn,Ni,,O,4,276.006928145,-1.19168135984
Ca8Mn6Co2O24,Ca,,,Mn,Co,,O,4,165.118221299,-1.49728769316
Ca8Mn6Fe2O24,Ca,,,Mn,Fe,,O,4,158.03796501,-1.56912476391
Ca8Mn6Ni2O24,Ca,,,Mn,Ni,,O,4,213.314659502,-1.39903616191
Ca8Mn7Co1O24,Ca,,,Mn,Co,,O,4,183.828681079,-1.52588095357
Ca8Mn7Fe1O24,Ca,,,Mn,Fe,,O,4,157.972802935,-1.58411523895
Ca8Mn7Ni1O24,Ca,,,Mn,Ni,,O,4,186.40027518,-1.49828181295
Ca8Mn8O24,Ca,,,Mn,,,O,3,164.660390859,-1.59235296398
Ca8Ni4Co4O24,Ca,,,Ni,Co,,O,4,287.661839026,-0.990811568206
Ca8Ni6Co2O24,Ca,,,Ni,Co,,O,4,361.579777229,-0.866838536956
Ca8Ni7Co1O24,Ca,,,Ni,Co,,O,4,378.45337133,-0.824937396331
Ca8Ni8O24,Ca,,,Ni,,,O,3,397.239965431,-0.781123255706
Ca8Ti8O24,Ca,,,Ti,,,O,3,12.44807725,-2.77406679304
Ca8V8O24,Ca,,,V,,,O,3,0,-2.26036616571
Cd4Pr4Ni8O24,Cd,Pr,,Ni,,,O,4,298.368831324,-0.699772874706
Dy2Y6Co8O24,Dy,Y,,Co,,,O,4,49.2192869886,-1.86747011571
Dy2Y6Cr8O24,Dy,Y,,Cr,,,O,4,21.353923875,-2.39784342671
Dy2Y6Fe8O24,Dy,Y,,Fe,,,O,4,27.129298625,-2.13261439871
Dy2Y6Ga8O24,Dy,Y,,Ga,,,O,4,75.6574945,-2.31947683371
Dy2Y6Mn8O24,Dy,Y,,Mn,,,O,4,45.499570942,-2.22406369898
Dy2Y6Ni8O24,Dy,Y,,Ni,,,O,4,86.115789799,-1.63035324071
Dy2Y6Sc8O24,Dy,Y,,Sc,,,O,4,34.8683784583,-3.16971882071
Dy2Y6Ti8O24,Dy,Y,,Ti,,,O,4,45.407611625,-2.84960402804
Dy2Y6V8O24,Dy,Y,,V,,,O,4,0,-2.52724940071
Dy4Y4Co8O24,Dy,Y,,Co,,,O,4,56.3388158052,-1.86579108271
Dy4Y4Cr8O24,Dy,Y,,Cr,,,O,4,28.48129225,-2.39764014371
Dy4Y4Fe8O24,Dy,Y,,Fe,,,O,4,34.10036925,-2.13230361571
Dy4Y4Ga8O24,Dy,Y,,Ga,,,O,4,81.726855,-2.31932805071
Dy4Y4Mn8O24,Dy,Y,,Mn,,,O,4,52.1415070253,-2.22390716598
Dy4Y4Ni8O24,Dy,Y,,Ni,,,O,4,84.2613186157,-1.63764820771
Dy4Y4Sc8O24,Dy,Y,,Sc,,,O,4,41.137907275,-3.16888978771
Dy4Y4Ti8O24,Dy,Y,,Ti,,,O,4,51.90442725,-2.84910699504
Dy4Y4V8O24,Dy,Y,,V,,,O,4,0,-2.53412486771
Dy8Fe8O24,Dy,,,Fe,,,O,3,390.4260105,-1.78929854971
Gd2Y6Co8O24,Gd,Y,,Co,,,O,4,0,-2.26618488746
Gd2Y6Cr8O24,Gd,Y,,Cr,,,O,4,0,-2.80900119846
Gd2Y6Fe8O24,Gd,Y,,Fe,,,O,4,0,-2.53210592046
Gd2Y6Ga8O24,Gd,Y,,Ga,,,O,4,72.650127375,-2.30699360546
Gd2Y6Mn8O24,Gd,Y,,Mn,,,O,4,0,-2.58248672073
Gd2Y6Ni8O24,Gd,Y,,Ni,,,O,4,0,-2.19787051246
Gd2Y6Sc8O24,Gd,Y,,Sc,,,O,4,28.0724115312,-3.16093884246
Gd2Y6Ti8O24,Gd,Y,,Ti,,,O,4,38.778547375,-2.84270104979
Gd2Y6V8O24,Gd,Y,,V,,,O,4,0,-2.87773142246
Gd4Y4Co8O24,Gd,Y,,Co,,,O,4,0,-2.25212412621
Gd4Y4Cr8O24,Gd,Y,,Cr,,,O,4,0,-2.79859468721
Gd4Y4Fe8O24,Gd,Y,,Fe,,,O,4,0,-2.53621540921
Gd4Y4Ga8O24,Gd,Y,,Ga,,,O,4,75.14562075,-2.29492809421
Gd4Y4Mn8O24,Gd,Y,,Mn,,,O,4,0,-2.56735570948
Gd4Y4Ni8O24,Gd,Y,,Ni,,,O,4,0,-2.18572575121
Gd4Y4Sc8O24,Gd,Y,,Sc,,,O,4,27.2516126875,-3.15175408121
Gd4Y4Ti8O24,Gd,Y,,Ti,,,O,4,35.37179875,-2.83857553854
Gd4Y4V8O24,Gd,Y,,V,,,O,4,0,-2.87572166121
Gd8Fe8O24,Gd,,,Fe,,,O,3,293.7439885,-1.83164988671
Ho8Fe8O24,Ho,,,Fe,,,O,3,417.7519315,-1.76693733371
La1Pr4Mn8Zn3O24,La,Pr,Zn,Mn,,,O,5,144.746720817,-1.65142492342
La1Pr4Zn3Co8O24,La,Pr,Zn,Co,,,O,5,172.420203064,-1.25701959014
La1Pr4Zn3Fe8O24,La,Pr,Zn,Fe,,,O,5,171.679717581,-1.52636787314
La1Pr4Zn3Ni8O24,La,Pr,Zn,Ni,,,O,5,0,-1.62181946514
La1Y4Mn8Zn3O24,La,Y,Zn,Mn,,,O,5,121.204438234,-1.71225886342
La1Y4Zn3Co8O24,La,Y,Zn,Co,,,O,5,168.464956314,-1.31932803014
La1Y4Zn3Fe8O24,La,Y,Zn,Fe,,,O,5,158.367409518,-1.57966806314
La1Y4Zn3Ni8O24,La,Y,Zn,Ni,,,O,5,291.955557984,-0.984678655143
La2Sr6Cr2Fe6O24,La,Sr,,Cr,Fe,,O,5,89.81673775,-1.72299450158
La4Ba4Co4Ni4O24,La,Ba,,Co,Ni,,O,5,192.284656263,-1.28853232396
La4Ba4Co6Ni2O24,La,Ba,,Co,Ni,,O,5,150.67246806,-1.38019960521
La4Ba4Co7Ni1O24,La,Ba,,Co,Ni,,O,5,124.314123959,-1.43158549583
La4Ba4Fe1Co7O24,La,Ba,,Fe,Co,,O,5,114.40771587,-1.50249842183
La4Ba4Fe1Ni7O24,La,Ba,,Fe,Ni,,O,5,206.364163582,-1.19006393746
La4Ba4Fe2Co6O24,La,Ba,,Fe,Co,,O,5,114.507151882,-1.53837795721
La4Ba4Fe2Ni6O24,La,Ba,,Fe,Ni,,O,5,189.648364591,-1.27370236346
La4Ba4Mn1Co7O24,La,Ba,,Mn,Co,,O,5,111.920470781,-1.52317964687
La4Ba4Mn1Ni7O24,La,Ba,,Mn,Ni,,O,5,213.49368171,-1.20634266249
La4Ba4Mn2Co6O24,La,Ba,,Mn,Co,,O,5,114.498161703,-1.57477490727
La4Ba4Mn2Fe6O24,La,Ba,,Mn,Fe,,O,5,845.337300308,-1.03493736952
La4Ba4Mn2Ni6O24,La,Ba,,Mn,Ni,,O,5,201.32142318,-1.31073531352