COMPOSITION,A_SITE_1,A_SITE_2,A_SITE_3,B_SITE_1,B_SITE_2,B_SITE_3,X_SITE,NUM_ELEMS,ENERGY_ABOVE_HULL,FORMATION_ENERGY
La4Ba4Mn4Co4O24,La,Ba,,Mn,Co,,O,5,103.756754539,-1.68541717809
La4Ba4Mn4Ni4O24,La,Ba,,Mn,Ni,,O,5,154.419623787,-1.52499711559
La4Ba4Mn6Co2O24,La,Ba,,Mn,Co,,O,5,123.246629227,-1.76462619891
La4Ba4Mn6Fe2O24,La,Ba,,Mn,Fe,,O,5,83.0462436023,-1.86159701966
La4Ba4Mn6Ni2O24,La,Ba,,Mn,Ni,,O,5,118.248559781,-1.70438166766
La4Ba4Mn7Co1O24,La,Ba,,Mn,Co,,O,5,98.1125625013,-1.82874570932
La4Ba4Mn7Fe1O24,La,Ba,,Mn,Fe,,O,5,87.0459946888,-1.8681974947
La4Ba4Mn7Ni1O24,La,Ba,,Mn,Ni,,O,5,103.165152778,-1.7910718187
La4Ba4Ni4Co4O24,La,Ba,,Ni,Co,,O,5,177.346156263,-1.30347082396
La4Ba4Ni6Co2O24,La,Ba,,Ni,Co,,O,5,237.062344466,-1.19369954271
La4Ba4Ni7Co1O24,La,Ba,,Ni,Co,,O,5,236.33802852,-1.14379565208
La4Ca4Co4Ni4O24,La,Ca,,Co,Ni,,O,5,177.317832168,-1.34457285296
La4Ca4Co6Ni2O24,La,Ca,,Co,Ni,,O,5,151.356143966,-1.42058963421
La4Ca4Co7Ni1O24,La,Ca,,Co,Ni,,O,5,83.5495498644,-1.51342377483
La4Ca4Fe1Co7O24,La,Ca,,Fe,Co,,O,5,101.887891775,-1.55609195083
La4Ca4Fe1Ni7O24,La,Ca,,Fe,Ni,,O,5,252.001050484,-1.23078596646
La4Ca4Fe2Co6O24,La,Ca,,Fe,Co,,O,5,111.026327787,-1.58293248621
La4Ca4Fe2Ni6O24,La,Ca,,Fe,Ni,,O,5,230.917642395,-1.31287589246
La4Ca4Mn1Co7O24,La,Ca,,Mn,Co,,O,5,70.4378966858,-1.60573592587
La4Ca4Mn1Ni7O24,La,Ca,,Mn,Ni,,O,5,247.474246653,-1.24779994149
La4Ca4Mn2Co6O24,La,Ca,,Mn,Co,,O,5,110.209087608,-1.62013768627
La4Ca4Mn2Ni6O24,La,Ca,,Mn,Ni,,O,5,218.137284733,-1.35063059252
La4Ca4Mn4Co4O24,La,Ca,,Mn,Co,,O,5,91.2847571679,-1.73366945709
La4Ca4Mn4Ni4O24,La,Ca,,Mn,Ni,,O,5,154.707610893,-1.56104764459
La4Ca4Mn6Co2O24,La,Ca,,Mn,Co,,O,5,100.117426727,-1.81944422791
La4Ca4Mn6Fe2O24,La,Ca,,Mn,Fe,,O,5,94.837602144,-1.89493454866
La4Ca4Mn6Ni2O24,La,Ca,,Mn,Ni,,O,5,116.278718092,-1.74599894666
La4Ca4Mn7Co1O24,La,Ca,,Mn,Co,,O,5,96.9267962097,-1.86360098832
La4Ca4Mn7Fe1O24,La,Ca,,Mn,Fe,,O,5,94.433508918,-1.9011995237
La4Ca4Mn7Ni1O24,La,Ca,,Mn,Ni,,O,5,102.79458377,-1.8318143477
La4Ca4Ni4Co4O24,La,Ca,,Ni,Co,,O,5,179.999332168,-1.34189135296
La4Ca4Ni6Co2O24,La,Ca,,Ni,Co,,O,5,238.522270371,-1.23331332171
La4Ca4Ni7Co1O24,La,Ca,,Ni,Co,,O,5,253.019864472,-1.19378818108
La4Dy4Co8O24,La,Dy,,Co,,,O,4,70.8357719052,-1.82824885846
La4Dy4Cr8O24,La,Dy,,Cr,,,O,4,0,-2.43838766946
La4Dy4Fe8O24,La,Dy,,Fe,,,O,4,0,-2.18440364146
La4Dy4Ga8O24,La,Dy,,Ga,,,O,4,32.0782685125,-2.36095707646
La4Dy4Mn8O24,La,Dy,,Mn,,,O,4,60.521912442,-2.20301369173
La4Dy4Ni8O24,La,Dy,,Ni,,,O,4,181.910774716,-1.51695348346
La4Dy4Sc8O24,La,Dy,,Sc,,,O,4,0,-3.20779556346
La4Dy4Ti8O24,La,Dy,,Ti,,,O,4,60.680276625,-2.83942877079
La4Dy4V8O24,La,Dy,,V,,,O,4,45.433214,-2.46511164346
La4Gd4Co8O24,La,Gd,,Co,,,O,4,0,-2.19489140196
La4Gd4Cr8O24,La,Gd,,Cr,,,O,4,0,-2.77598046296
La4Gd4Fe8O24,La,Gd,,Fe,,,O,4,0,-2.53059693496
La4Gd4Ga8O24,La,Gd,,Ga,,,O,4,89.2356505937,-2.27288561996
La4Gd4Mn8O24,La,Gd,,Mn,,,O,4,0,-2.55747998523
La4Gd4Sc8O24,La,Gd,,Sc,,,O,4,29.653255,-3.14174760696
La4Gd4Ti8O24,La,Gd,,Ti,,,O,4,34.149398125,-2.83889556429
La4Gd4V8O24,La,Gd,,V,,,O,4,0,-2.87225118696
La4Ho4Co8O24,La,Ho,,Co,,,O,4,71.2267570302,-1.83332800046
La4Ho4Cr8O24,La,Ho,,Cr,,,O,4,0,-2.43957006146
La4Ho4Fe8O24,La,Ho,,Fe,,,O,4,0,-2.18551303346
La4Ho4Ga8O24,La,Ho,,Ga,,,O,4,33.56831065,-2.36206646846
La4Ho4Mn8O24,La,Ho,,Mn,,,O,4,65.031271442,-2.20356433373
La4Ho4Ni8O24,La,Ho,,Ni,,,O,4,189.644509841,-1.51468987546
La4Ho4Sc8O24,La,Ho,,Sc,,,O,4,0.992490624999,-3.20850020546
La4Ho4Ti8O24,La,Ho,,Ti,,,O,4,62.110810625,-2.84020866279
La4Ho4V8O24,La,Ho,,V,,,O,4,47.26926175,-2.46547803546
La4Nd4Co8O24,La,Nd,,Co,,,O,4,41.1709055302,-1.80025783896
La4Nd4Cr8O24,La,Nd,,Cr,,,O,4,0,-2.40601889996
La4Nd4Fe8O24,La,Nd,,Fe,,,O,4,0,-2.15323712196
La4Nd4Ga8O24,La,Nd,,Ga,,,O,4,15.4429064062,-2.33016130696
La4Nd4Mn8O24,La,Nd,,Mn,,,O,4,40.835433942,-2.17396092223
La4Nd4Ni8O24,La,Nd,,Ni,,,O,4,133.559658341,-1.50764871396
La4Nd4Sc8O24,La,Nd,,Sc,,,O,4,0,-3.18007504396
La4Nd4Ti8O24,La,Nd,,Ti,,,O,4,40.797316625,-2.81744025129
La4Sm4Co8O24,La,Sm,,Co,,,O,4,59.0546828427,-1.80238655846
La4Sm4Cr8O24,La,Sm,,Cr,,,O,4,0,-2.41849386946
La4Sm4Fe8O24,La,Sm,,Fe,,,O,4,0,-2.16513759146
La4Sm4Ga8O24,La,Sm,,Ga,,,O,4,22.3715508958,-2.34197252646
La4Sm4Mn8O24,La,Sm,,Mn,,,O,4,44.850516692,-2.18372914173
La4Sm4Ni8O24,La,Sm,,Ni,,,O,4,150.508185653,-1.51071268346
La4Sm4Sc8O24,La,Sm,,Sc,,,O,4,0,-3.19075701346
La4Sm4Ti8O24,La,Sm,,Ti,,,O,4,50.8263675,-2.82293922079
La4Sm4V8O24,La,Sm,,V,,,O,4,13.39023875,-2.44601559346
La4Sr4Co4Ni4O24,La,Sr,,Co,Ni,,O,5,136.443088216,-1.35838893696
La4Sr4Co6Ni2O24,La,Sr,,Co,Ni,,O,5,97.3721500131,-1.44751496821
La4Sr4Co7Ni1O24,La,Sr,,Co,Ni,,O,5,79.3248059118,-1.49058985883
La4Sr4Fe1Co7O24,La,Sr,,Fe,Co,,O,5,71.0448978223,-1.55987628483
La4Sr4Fe1Ni7O24,La,Sr,,Fe,Ni,,O,5,191.404536145,-1.25002980046
La4Sr4Fe2Co6O24,La,Sr,,Fe,Co,,O,5,78.9063338342,-1.58799382021
La4Sr4Fe2Ni6O24,La,Sr,,Fe,Ni,,O,5,173.746535716,-1.33325497646
La4Sr4Mn1Co7O24,La,Sr,,Mn,Co,,O,5,68.4009027332,-1.58071425987
La4Sr4Mn1Ni7O24,La,Sr,,Mn,Ni,,O,5,204.554893762,-1.25733402549
La4Sr4Mn2Co6O24,La,Sr,,Mn,Co,,O,5,55.9498436559,-1.64733827027
La4Sr4Mn4Co4O24,La,Sr,,Mn,Co,,O,5,54.6384029447,-1.75414029109
La4Sr4Mn4Ni4O24,La,Sr,,Mn,Ni,,O,5,117.792276816,-1.58256997859
La4Sr4Mn6Co2O24,La,Sr,,Mn,Co,,O,5,59.5241562349,-1.84232881191
La4Sr4Mn6Fe2O24,La,Sr,,Mn,Fe,,O,5,45.293214144,-1.91932613266
La4Sr4Mn6Ni2O24,La,Sr,,Mn,Ni,,O,5,83.1507295945,-1.76639778066
La4Sr4Mn7Co1O24,La,Sr,,Mn,Co,,O,5,60.2850907134,-1.88707032232
La4Sr4Mn7Fe1O24,La,Sr,,Mn,Fe,,O,5,53.128244668,-1.9256103577
La4Sr4Mn7Ni1O24,La,Sr,,Mn,Ni,,O,5,69.2085003268,-1.8527586817
La4Sr4Ni4Co4O24,La,Sr,,Ni,Co,,O,5,132.211588216,-1.36262043696
La4Sr4Ni6Co2O24,La,Sr,,Ni,Co,,O,5,178.519868287,-1.25850415571
La4Sr4Ni7Co1O24,La,Sr,,Ni,Co,,O,5,193.51782743,-1.21292776508
La5Mn8Zn3O24,La,Zn,,Mn,,,O,4,145.936465692,-1.67877663917
La5Sr3Fe6Co2O24,La,Sr,,Fe,Co,,O,5,47.0862504559,-1.82852682439
La5Zn3Co8O24,La,Zn,,Co,,,O,4,181.659746314,-1.28328280589
La5Zn3Fe8O24,La,Zn,,Fe,,,O,4,176.193352581,-1.55518383889
La5Zn3Ni8O24,La,Zn,,Ni,,,O,4,304.216097984,-0.949567680893
La6Dy2Co8O24,La,Dy,,Co,,,O,4,59.5521104052,-1.82269927933
La6Dy2Fe8O24,La,Dy,,Fe,,,O,4,0,-2.17712556233
La6Dy2Ga8O24,La,Dy,,Ga,,,O,4,25.3695907381,-2.35253849733
La6Dy2Mn8O24,La,Dy,,Mn,,,O,4,53.842554067,-2.19695111261
La6Dy2Ni8O24,La,Dy,,Ni,,,O,4,157.374363216,-1.52465665433
La6Dy2Sc8O24,La,Dy,,Sc,,,O,4,0,-3.20421573433
La6Dy2Ti8O24,La,Dy,,Ti,,,O,4,52.6296356875,-2.84102844166
La6Dy2V8O24,La,Dy,,V,,,O,4,44.856381,-2.46008906433
La6Gd2Co8O24,La,Gd,,Co,,,O,4,0,-2.20774755108
La6Gd2Cr8O24,La,Gd,,Cr,,,O,4,0,-2.78164186208
La6Gd2Fe8O24,La,Gd,,Fe,,,O,4,0,-2.52881483408
La6Gd2Ga8O24,La,Gd,,Ga,,,O,4,85.9609736131,-2.27645651908
La6Gd2Mn8O24,La,Gd,,Mn,,,O,4,0,-2.56041988436
La6Gd2Ni8O24,La,Gd,,Ni,,,O,4,0,-2.16258042608
La6Gd2Sc8O24,La,Gd,,Sc,,,O,4,30.22875,-3.14737525608
La6Gd2Ti8O24,La,Gd,,Ti,,,O,4,34.5198214375,-2.84560621341
La6Gd2V8O24,La,Gd,,V,,,O,4,0,-2.87237833608
La6Hf2Mn6Zn2O24,La,Zn,,Mn,Hf,,O,5,129.676557394,-2.14966329829
La6Hf2Zn2Co6O24,La,Zn,,Co,Hf,,O,5,146.594935546,-1.87301298583
La6Hf2Zn2Fe6O24,La,Zn,,Fe,Hf,,O,5,156.51523,-2.06464644808
La6Hf2Zn2Ni6O24,La,Zn,,Ni,Hf,,O,5,214.252915662,-1.64784214208
La6Ho2Cr8O24,La,Ho,,Cr,,,O,4,0,-2.43011791133
La6Ho2Fe8O24,La,Ho,,Fe,,,O,4,0,-2.17333163333
La6Ho2Ga8O24,La,Ho,,Ga,,,O,4,26.8282538631,-2.35222006833
La6Ho2Mn8O24,La,Ho,,Mn,,,O,4,56.751733567,-2.19657193361
La6Ho2Ni8O24,La,Ho,,Ni,,,O,4,161.615855778,-1.52315022533
La6Ho2Sc8O24,La,Ho,,Sc,,,O,4,0,-3.20390755533
La6Ho2Ti8O24,La,Ho,,Ti,,,O,4,55.3782776875,-2.83938501266
La6Ho2V8O24,La,Ho,,V,,,O,4,47.619279875,-2.45842738533
La6Mn6Nb2Zn2O24,La,Zn,,Mn,Nb,,O,5,106.566685144,-2.07144718454
La6Mn8Zn2O24,La,Zn,,Mn,,,O,4,94.573625692,-1.86791902061
La6Nb2Zn2Co6O24,La,Zn,,Co,Nb,,O,5,143.14427,-1.80392537208
La6Nb2Zn2Fe6O24,La,Zn,,Fe,Nb,,O,5,110.462825,-1.99198833433
La6Nb2Zn2Ni6O24,La,Zn,,Ni,Nb,,O,5,185.182334608,-1.61172202833
La6Nd2Co8O24,La,Nd,,Co,,,O,4,33.9191772177,-1.81950426958
La6Nd2Cr8O24,La,Nd,,Cr,,,O,4,0,-2.41815333058
La6Nd2Fe8O24,La,Nd,,Fe,,,O,4,0,-2.16561180258
La6Nd2Ga8O24,La,Nd,,Ga,,,O,4,12.6328149464,-2.34167498758
La6Nd2Mn8O24,La,Nd,,Mn,,,O,4,40.254439817,-2.18616960286
La6Nd2Ni8O24,La,Nd,,Ni,,,O,4,131.304680028,-1.52189839458
La6Nd2Sc8O24,La,Nd,,Sc,,,O,4,0,-3.19395422458
La6Nd2V8O24,La,Nd,,V,,,O,4,35.46209575,-2.44930505458
La6Sm2Co8O24,La,Sm,,Co,,,O,4,43.192815874,-1.82023687933
La6Sm2Cr8O24,La,Sm,,Cr,,,O,4,0,-2.42340544033
La6Sm2Fe8O24,La,Sm,,Fe,,,O,4,0,-2.17060891233
La6Sm2Ga8O24,La,Sm,,Ga,,,O,4,17.3373103214,-2.34644034733
La6Sm2Mn8O24,La,Sm,,Mn,,,O,4,43.488231192,-2.18982746261
La6Sm2Ni8O24,La,Sm,,Ni,,,O,4,140.198318684,-1.52301100433
La6Sm2Sc8O24,La,Sm,,Sc,,,O,4,0,-3.19836783433
La6Sm2Ti8O24,La,Sm,,Ti,,,O,4,42.324806125,-2.83816154166
La6Sm2V8O24,La,Sm,,V,,,O,4,26.169518375,-2.45320641433
La6Ta2Mn6Zn2O24,La,Zn,,Mn,Ta,,O,5,96.279210144,-2.13503678104
La6Ta2Zn2Co6O24,La,Zn,,Co,Ta,,O,5,140.87646025,-1.86426796858
La6Ta2Zn2Fe6O24,La,Zn,,Fe,Ta,,O,5,110.503751,-2.04801093083
La6Ta2Zn2Ni6O24,La,Zn,,Ni,Ta,,O,5,186.835774858,-1.66814337483
La6Ti2Mn6Zn2O24,La,Zn,,Mn,Ti,,O,5,95.946943894,-2.11655410287
La6Ti2Zn2Co6O24,La,Zn,,Co,Ti,,O,5,140.791488296,-1.82437329041
La6Ti2Zn2Fe6O24,La,Zn,,Fe,Ti,,O,5,99.671795625,-2.06007425266
La6Ti2Zn2Ni6O24,La,Zn,,Ni,Ti,,O,5,202.290968412,-1.60536094666
La6Zn2Co8O24,La,Zn,,Co,,,O,4,121.202058532,-1.47742043733
La6Zn2Fe8O24,La,Zn,,Fe,,,O,4,120.565464054,-1.75143597033
La6Zn2Ni8O24,La,Zn,,Ni,,,O,4,241.991215895,-1.14893056233
La6Zr2Mn6Zn2O24,La,Zn,,Mn,Zr,,O,5,95.343111144,-2.14731779654
La6Zr2Zn2Co6O24,La,Zn,,Co,Zr,,O,5,114.194239296,-1.86873473408
La6Zr2Zn2Fe6O24,La,Zn,,Fe,Zr,,O,5,120.15628375,-2.06432644633
La6Zr2Zn2Ni6O24,La,Zn,,Ni,Zr,,O,5,200.047469412,-1.62536864033
La7Mn8Zn1O24,La,Zn,,Mn,,,O,4,64.766785692,-2.03550540204
La7Zn1Co8O24,La,Zn,,Co,,,O,4,73.7475037184,-1.65827281877
La7Zn1Fe8O24,La,Zn,,Fe,,,O,4,79.884325527,-1.93274135177
La7Zn1Ni8O24,La,Zn,,Ni,,,O,4,188.139583805,-1.33992019377
La8Co1Ni7O24,La,,,Co,Ni,,O,4,108.979857614,-1.58124546583
La8Co2Ni6O24,La,,,Co,Ni,,O,4,86.4067635131,-1.62884610646
La8Co4Ni4O24,La,,,Co,Ni,,O,4,55.7153253105,-1.70959263771
La8Co6Ni2O24,La,,,Co,Ni,,O,4,47.0181371079,-1.76834491896
La8Co7Ni1O24,La,,,Co,Ni,,O,4,48.9115430065,-1.79147905958
La8Co8O24,La,,,Co,,,O,3,25.8389489052,-1.83957920021
La8Cr1Co7O24,La,,,Cr,Co,,O,4,34.4706557296,-1.89858508283
La8Cr1Fe7O24,La,,,Cr,Fe,,O,4,0,-2.21407383046
La8Cr1Ga7O24,La,,,Cr,Ga,,O,4,1.747132,-2.36453852358
La8Cr1Ni7O24,La,,,Cr,Ni,,O,4,114.247314439,-1.64361559846
La8Cr2Co6O24,La,,,Cr,Co,,O,4,60.1231125539,-1.94057021546
La8Cr2Fe6O24,La,,,Cr,Fe,,O,4,19.901478625,-2.19666567771
La8Cr2Ga6O24,La,,,Cr,Ga,,O,4,0,-2.37471387896
La8Cr2Ni6O24,La,,,Cr,Ni,,O,4,95.7636771618,-1.75476437171
La8Cr4Co4O24,La,,,Cr,Co,,O,4,0,-2.14055073071
La8Cr4Fe4O24,La,,,Cr,Fe,,O,4,0,-2.31950062221
La8Cr4Ni4O24,La,,,Cr,Ni,,O,4,0,-2.05054966821
La8Cr6Co2O24,La,,,Cr,Co,,O,4,0,-2.28417149596
La8Cr6Fe2O24,La,,,Cr,Fe,,O,4,0,-2.37553006671
La8Cr6Ni2O24,La,,,Cr,Ni,,O,4,0,-2.22246746471
La8Cr7Co1O24,La,,,Cr,Co,,O,4,0,-2.35960987858
La8Cr7Fe1O24,La,,,Cr,Fe,,O,4,0,-2.40366641396
La8Cr7Ni1O24,La,,,Cr,Ni,,O,4,0,-2.33520798796
La8Cr8O24,La,,,Cr,,,O,3,0,-2.43108551121
La8Fe1Co7O24,La,,,Fe,Co,,O,4,40.9146349171,-1.86048248558
La8Fe1Ni7O24,La,,,Fe,Ni,,O,4,115.200293626,-1.61100400121
La8Fe2Co6O24,La,,,Fe,Co,,O,4,39.3315709289,-1.89804452096
La8Fe2Ni6O24,La,,,Fe,Ni,,O,4,102.514385537,-1.68469642721
La8Fe4Co4O24,La,,,Fe,Co,,O,4,1.92094295262,-2.00741309171
La8Fe4Ni4O24,La,,,Fe,Ni,,O,4,0,-1.91143377921
La8Fe6Co2O24,La,,,Fe,Co,,O,4,0,-2.10653941246
La8Fe6Ni2O24,La,,,Fe,Ni,,O,4,0,-2.04828263121
La8Fe7Co1O24,La,,,Fe,Co,,O,4,0,-2.14208994783
La8Fe7Ni1O24,La,,,Fe,Ni,,O,4,0,-2.11769180721
La8Fe8O24,La,,,Fe,,,O,3,0,-2.17890123321
La8Ga4Co4O24,La,,,Ga,Co,,O,4,26.3184750776,-2.10801380921
La8Ga4Fe4O24,La,,,Ga,Fe,,O,4,0,-2.27633595071
La8Ga4Ni4O24,La,,,Ga,Ni,,O,4,67.0851014829,-1.96713699671
La8Ga6Co2O24,La,,,Ga,Co,,O,4,16.5750555745,-2.23086011371
La8Ga6Fe2O24,La,,,Ga,Fe,,O,4,0,-2.31593543446
La8Ga6Ni2O24,La,,,Ga,Ni,,O,4,40.6187326789,-2.16000908246
La8Ga7Co1O24,La,,,Ga,Co,,O,4,11.847970823,-2.29213864096
La8Ga7Fe1O24,La,,,Ga,Fe,,O,4,0,-2.33547317633
La8Ga7Ni1O24,La,,,Ga,Ni,,O,4,25.1748038261,-2.25703200033
La8Ga8O24,La,,,Ga,,,O,3,6.37138607143,-2.35416666821
La8Mg1Co7O24,La,,,Mg,Co,,O,4,0,-2.26815733846
La8Mg1Cr7O24,La,,,Mg,Cr,,O,4,0,-2.82836801683
La8Mg1Fe7O24,La,,,Mg,Fe,,O,4,0,-2.62508583608
La8Mg1Ga7O24,La,,,Mg,Ga,,O,4,34.9408400761,-2.35487452921
La8Mg1Mn7O24,La,,,Mg,Mn,,O,4,0,-2.59697816132
La8Mg1Ni7O24,La,,,Mg,Ni,,O,4,0,-2.22231210408
La8Mg1Sc7O24,La,,,Mg,Sc,,O,4,5.05625633946,-3.09574308033
La8Mg1Ti7O24,La,,,Mg,Ti,,O,4,25.722252,-2.87116594925
La8Mg1V7O24,La,,,Mg,V,,O,4,0,-2.87646540033
La8Mg2Co6O24,La,,,Mg,Co,,O,4,0,-2.31044647671
La8Mg2Cr6O24,La,,,Mg,Cr,,O,4,0,-2.81168427246
La8Mg2Fe6O24,La,,,Mg,Fe,,O,4,0,-2.62636318896
La8Mg2Ga6O24,La,,,Mg,Ga,,O,4,60.3605981789,-2.35469414021
La8Mg2Mn6O24,La,,,Mg,Mn,,O,4,0,-2.62565353916
La8Mg2Ni6O24,La,,,Mg,Ni,,O,4,0,-2.26558613296
La8Mg2Sc6O24,La,,,Mg,Sc,,O,4,34.3690176789,-2.98342250546
La8Mg2Ti6O24,La,,,Mg,Ti,,O,4,24.13350925,-2.88243578596
La8Mg2V6O24,La,,,Mg,V,,O,4,0,-2.86261306546
La8Mg4Co4O24,La,,,Mg,Co,,O,4,0,-2.38543975321
La8Mg4Cr4O24,La,,,Mg,Cr,,O,4,0,-2.76816578371
La8Mg4Fe4O24,La,,,Mg,Fe,,O,4,0,-2.63248014471
La8Mg4Ga4O24,La,,,Mg,Ga,,O,4,108.224668483,-2.35327086221
La8Mg4Mn4O24,La,,,Mg,Mn,,O,4,0,-2.65769404484
La8Mg4Ni4O24,La,,,Mg,Ni,,O,4,0,-2.34905744071
La8Mg4Sc4O24,La,,,Mg,Sc,,O,4,89.9135403579,-2.76186235571
La8Mg4Ti4O24,La,,,Mg,Ti,,O,4,22.18427375,-2.90374720937
La8Mg4V4O24,La,,,Mg,V,,O,4,0,-2.83605989571
La8Mn1Co7O24,La,,,Mn,Co,,O,4,27.9926398279,-1.89159846062
La8Mn1Cr7O24,La,,,Mn,Cr,,O,4,0,-2.40338113899
La8Mn1Fe7O24,La,,,Mn,Fe,,O,4,0,-2.18501020824
La8Mn1Ga7O24,La,,,Mn,Ga,,O,4,33.436112274,-2.31179115137
La8Mn1Ni7O24,La,,,Mn,Ni,,O,4,100.457044713,-1.63634747624
La8Mn1V7O24,La,,,Mn,V,,O,4,86.889654024,-2.38483702249
La8Mn2Co6O24,La,,,Mn,Co,,O,4,29.9490807506,-1.94381497102
La8Mn2Cr6O24,La,,,Mn,Cr,,O,4,0,-2.37724251677
La8Mn2Fe6O24,La,,,Mn,Fe,,O,4,27.030439173,-2.14741993327
La8Mn2Ga6O24,La,,,Mn,Ga,,O,4,7.74558847657,-2.32217088452
La8Mn2Ni6O24,La,,,Mn,Ni,,O,4,69.2693877098,-1.73914187727
La8Mn2V6O24,La,,,Mn,V,,O,4,36.179510048,-2.40792780977
La8Mn4Co4O24,La,,,Mn,Co,,O,4,26.702212596,-2.05540774184
La8Mn4Cr4O24,La,,,Mn,Cr,,O,4,0,-2.33142677234
La8Mn4Fe4O24,La,,,Mn,Fe,,O,4,0,-2.21386938334
La8Mn4Ga4O24,La,,,Mn,Ga,,O,4,0,-2.39352985084
La8Mn4Ni4O24,La,,,Mn,Ni,,O,4,0.442073703859,-1.95118267934
La8Mn4V4O24,La,,,Mn,V,,O,4,73.395222096,-2.31547338434
La8Mn6Co2O24,La,,,Mn,Co,,O,4,48.994329144,-2.11108651266
La8Mn6Cr2O24,La,,,Mn,Cr,,O,4,49.847735144,-2.23032077791
La8Mn6Fe2O24,La,,,Mn,Fe,,O,4,43.995693519,-2.17285558341
La8Mn6Ni2O24,La,,,Mn,Ni,,O,4,19.2047596979,-2.07563348141
La8Mn7Co1O24,La,,,Mn,Co,,O,4,36.507512418,-2.16255877307
La8Mn7Cr1O24,La,,,Mn,Cr,,O,4,43.125215418,-2.2159849057
La8Mn7Fe1O24,La,,,Mn,Fe,,O,4,40.2646946055,-2.18718680845
La8Mn7Ni1O24,La,,,Mn,Ni,,O,4,31.343352695,-2.13510163245
La8Mn8O24,La,,,Mn,,,O,3,39.226445692,-2.19882528348
La8Ni8O24,La,,,Ni,,,O,3,128.935951716,-1.53626182521
La8Sc4Co4O24,La,,,Sc,Co,,O,4,0,-2.52517855271
La8Sc4Cr4O24,La,,,Sc,Cr,,O,4,0,-2.82254258321
La8Sc4Fe4O24,La,,,Sc,Fe,,O,4,0,-2.69906019421
La8Sc4Mn4O24,La,,,Sc,Mn,,O,4,0,-2.71860834434
La8Sc4Ni4O24,La,,,Sc,Ni,,O,4,44.4184733579,-2.38008399021
La8Sc6Co2O24,La,,,Sc,Co,,O,4,0,-2.86378072896
La8Sc6Cr2O24,La,,,Sc,Cr,,O,4,0,-3.01270449421
La8Sc6Fe2O24,La,,,Sc,Fe,,O,4,0,-2.95251629971
La8Sc6Mn2O24,La,,,Sc,Mn,,O,4,0,-2.95858899977
La8Sc6Ni2O24,La,,,Sc,Ni,,O,4,16.2043591789,-2.78795044771
La8Sc7Co1O24,La,,,Sc,Co,,O,4,0,-3.03570369208
La8Sc7Cr1O24,La,,,Sc,Cr,,O,4,0,-3.10994607471
La8Sc7Fe1O24,La,,,Sc,Fe,,O,4,0,-3.08037297746
La8Sc7Mn1O24,La,,,Sc,Mn,,O,4,9.5235200865,-3.05606420249
La8Sc7Ni1O24,La,,,Sc,Ni,,O,4,0,-2.99882655146
La8Sc8O24,La,,,Sc,,,O,3,0,-3.20848640521
La8Ti4Co4O24,La,,,Ti,Co,,O,4,23.94141725,-2.55387615637
La8Ti4Cr4O24,La,,,Ti,Cr,,O,4,62.9442200833,-2.64176743687
La8Ti4Fe4O24,La,,,Ti,Fe,,O,4,28.81237225,-2.61675454787
La8Ti4Mn4O24,La,,,Ti,Mn,,O,4,37.348833846,-2.67454169801
La8Ti4Ni4O24,La,,,Ti,Ni,,O,4,39.83120675,-2.45882684387
La8Ti6Co2O24,La,,,Ti,Co,,O,4,141.470543625,-2.71233750946
La8Ti6Cr2O24,La,,,Ti,Cr,,O,4,117.125778375,-2.73668227471
La8Ti6Fe2O24,La,,,Ti,Fe,,O,4,118.542972875,-2.73526508021
La8Ti6Mn2O24,La,,,Ti,Mn,,O,4,95.520522806,-2.75828753027
La8Ti6Ni2O24,La,,,Ti,Ni,,O,4,208.989074875,-2.64481897821
La8Ti7Co1O24,La,,,Ti,Co,,O,4,88.3802996944,-2.786781561
La8Ti7Cr1O24,La,,,Ti,Cr,,O,4,74.7468692031,-2.79675319362
La8Ti7Fe1O24,La,,,Ti,Fe,,O,4,79.2325764722,-2.79641584637
La8Ti7Mn1O24,La,,,Ti,Mn,,O,4,65.3557068672,-2.80846057141
La8Ti7Ni1O24,La,,,Ti,Ni,,O,4,122.038739417,-2.76036667037
La8Ti8O24,La,,,Ti,,,O,3,30.17024475,-2.85703686254
La8V4Co4O24,La,,,V,Co,,O,4,31.378064,-2.23330284271
La8V4Cr4O24,La,,,V,Cr,,O,4,49.15732575,-2.40377512321
La8V4Fe4O24,La,,,V,Fe,,O,4,28.2257425,-2.29807223421
La8V4Ni4O24,La,,,V,Ni,,O,4,104.542615,-2.12055853021
La8V6Co2O24,La,,,V,Co,,O,4,61.213702625,-2.32975628896
La8V6Cr2O24,La,,,V,Cr,,O,4,48.571186875,-2.42756805421
La8V6Fe2O24,La,,,V,Fe,,O,4,35.15839525,-2.37766360971
La8V6Ni2O24,La,,,V,Ni,,O,4,117.714483875,-2.27325550771
La8V7Co1O24,La,,,V,Co,,O,4,57.4995003125,-2.38765851208
La8V7Cr1O24,La,,,V,Cr,,O,4,36.6852424375,-2.45105739471
La8V7Fe1O24,La,,,V,Fe,,O,4,35.123221625,-2.42096079746
La8V7Ni1O24,La,,,V,Ni,,O,4,73.0016409375,-2.37215637146
La8V8O24,La,,,V,,,O,3,36.257048,-2.46308898521
Mg8Fe8O24,Mg,,,Fe,,,O,3,636.339324716,-0.898799178706
Nd2Y6Co8O24,Nd,Y,,Co,,,O,4,54.1514922177,-1.83354760596
Nd2Y6Cr8O24,Nd,Y,,Cr,,,O,4,26.35395975,-2.37219166696
Nd2Y6Fe8O24,Nd,Y,,Fe,,,O,4,31.763370625,-2.10875013896
Nd2Y6Ga8O24,Nd,Y,,Ga,,,O,4,76.8437187083,-2.29469032396
Nd2Y6Mn8O24,Nd,Y,,Mn,,,O,4,43.821956692,-2.20137168923
Nd2Y6Ni8O24,Nd,Y,,Ni,,,O,4,82.6202450282,-1.60485848096
Nd2Y6Sc8O24,Nd,Y,,Sc,,,O,4,31.5042600312,-3.14984331096
Nd2Y6Ti8O24,Nd,Y,,Ti,,,O,4,45.062381625,-2.82901351829
Nd2Y6V8O24,Nd,Y,,V,,,O,4,0,-2.50350664096
Nd4Y4Co8O24,Nd,Y,,Co,,,O,4,45.4043655302,-1.81887481321
Nd4Y4Cr8O24,Nd,Y,,Cr,,,O,4,33.885364,-2.35093262421
Nd4Y4Fe8O24,Nd,Y,,Fe,,,O,4,38.65176325,-2.08929184621
Nd4Y4Ga8O24,Nd,Y,,Ga,,,O,4,79.0798034167,-2.27477453121
Nd4Y4Mn8O24,Nd,Y,,Mn,,,O,4,45.0377785253,-2.18227164648
Nd4Y4Ni8O24,Nd,Y,,Ni,,,O,4,73.3023683407,-1.59075643821
Nd4Y4Sc8O24,Nd,Y,,Sc,,,O,4,30.7458096875,-3.13293251821
Nd4Y4Ti8O24,Nd,Y,,Ti,,,O,4,46.69821725,-2.81244172554
Nd4Y4V8O24,Nd,Y,,V,,,O,4,0,-2.48965909821
Nd8Fe8O24,Nd,,,Fe,,,O,3,209.8692985,-1.89293451071
Pr4Ba4Co4Ni4O24,Pr,Ba,,Co,Ni,,O,5,169.625113013,-1.27568910821
Pr4Ba4Co6Ni2O24,Pr,Ba,,Co,Ni,,O,5,163.79917481,-1.33157013946
Pr4Ba4Co7Ni1O24,Pr,Ba,,Co,Ni,,O,5,139.013580709,-1.38138328008
Pr4Ba4Fe1Co7O24,Pr,Ba,,Fe,Co,,O,5,131.761462182,-1.45018520608
Pr4Ba4Fe1Ni7O24,Pr,Ba,,Fe,Ni,,O,5,221.055903582,-1.14056797171
Pr4Ba4Fe2Co6O24,Pr,Ba,,Fe,Co,,O,5,130.347187757,-1.48812174146
Pr4Ba4Fe2Ni6O24,Pr,Ba,,Fe,Ni,,O,5,204.046571341,-1.22380139771
Pr4Ba4Mn1Co7O24,Pr,Ba,,Mn,Co,,O,5,124.477908026,-1.47089693112
Pr4Ba4Mn1Ni7O24,Pr,Ba,,Mn,Ni,,O,5,227.87867171,-1.15715344674
Pr4Ba4Mn2Co6O24,Pr,Ba,,Mn,Co,,O,5,122.772579444,-1.52255269152
Pr4Ba4Mn2Fe6O24,Pr,Ba,,Mn,Fe,,O,5,857.231665308,-0.989713403775
Pr4Ba4Mn2Ni6O24,Pr,Ba,,Mn,Ni,,O,5,232.699818764,-1.24431984777
Pr4Ba4Mn4Co4O24,Pr,Ba,,Mn,Co,,O,5,100.207954132,-1.64381621234
Pr4Ba4Mn4Ni4O24,Pr,Ba,,Mn,Ni,,O,5,169.573330537,-1.47434064984
Pr4Ba4Mn6Co2O24,Pr,Ba,,Mn,Co,,O,5,122.677656829,-1.71642398316
Pr4Ba4Mn6Fe2O24,Pr,Ba,,Mn,Fe,,O,5,101.768107977,-1.81037805391
Pr4Ba4Mn6Ni2O24,Pr,Ba,,Mn,Ni,,O,5,135.390845031,-1.65365570191
Pr4Ba4Mn7Co1O24,Pr,Ba,,Mn,Co,,O,5,100.864883177,-1.78577549357
Pr4Ba4Mn7Fe1O24,Pr,Ba,,Mn,Fe,,O,5,106.220358751,-1.81694227895
Pr4Ba4Mn7Ni1O24,Pr,Ba,,Mn,Ni,,O,5,121.428977278,-1.74018385295
Pr4Ba4Ni4Co4O24,Pr,Ba,,Ni,Co,,O,5,191.512363013,-1.25380185821